54
Lattice="8.191417821843899 0.0 0.0 4.0957089109219496 7.09397592672941 0.0 0.0 0.0 31.14710774080997" Properties=species:S:1:pos:R:3:move_mask:L:1 energy=-186955.46912365 stress="-0.076773741561668 -1.8655965556549e-08 -7.391151849393e-09 -1.8655965556549e-08 -0.076773719134593 -4.3429999429157e-09 -7.391151849393e-09 -4.3429999429157e-09 0.0072783409049177" free_energy=-186955.46912365 pbc="T T T"
Pd       8.19141782       1.57643909      10.00000000  F
Pd       2.73047261       1.57643909      10.00000000  F
Pd       5.46094521       1.57643909      10.00000000  F
Pd       4.09570891       3.94109774      10.00000000  F
Pd       6.82618152       3.94109774      10.00000000  F
Pd       9.55665413       3.94109774      10.00000000  F
Pd       5.46094521       6.30575638      10.00000000  F
Pd       8.19141782       6.30575638      10.00000000  F
Pd      10.92189043       6.30575638      10.00000000  F
Pd       1.36523630       0.78821955      12.22942155  F
Pd       4.09570891       0.78821955      12.22942155  F
Pd       6.82618152       0.78821955      12.22942155  F
Pd       2.73047261       3.15287819      12.22942155  F
Pd       5.46094521       3.15287819      12.22942155  F
Pd       8.19141782       3.15287819      12.22942155  F
Pd       4.09570891       5.51753683      12.22942155  F
Pd       6.82618152       5.51753683      12.22942155  F
Pd       9.55665413       5.51753683      12.22942155  F
Pd       5.46094521      -0.00000000      14.45884310  F
Pd       2.73047261      -0.00000000      14.45884310  F
Pd       0.00000000      -0.00000000      14.45884310  F
Pd       1.36523630       2.36465864      14.45884310  F
Pd       4.09570891       2.36465864      14.45884310  F
Pd       2.73047261       4.72931728      14.45884310  F
Pd       6.82618152       2.36465864      14.45884310  F
Pd       5.46094521       4.72931728      14.45884310  F
Pd       8.19141782       4.72931728      14.45884310  F
Pd       2.73047294       1.57643931      16.70083769  T
Pd       5.46094553       1.57643935      16.70083788  T
Pd       8.19141808       1.57643918      16.70083820  T
Pd       4.09570926       3.94109785      16.70083791  T
Pd       6.82618179       3.94109792      16.70083816  T
Pd       9.55665440       3.94109782      16.70083837  T
Pd       5.46094548       6.30575655      16.70083817  T
Pd       8.19141802       6.30575653      16.70083838  T
Pd      10.92189052       6.30575644      16.70083858  T
Pd       1.36523624       0.78821950      18.87857086  T
Pd       4.09570875       0.78821945      18.87857116  T
Pd       6.82618139       0.78821942      18.87857102  T
Pd       2.73047240       3.15287812      18.87857138  T
Pd       5.46094493       3.15287802      18.87857191  T
Pd       8.19141757       3.15287805      18.87857142  T
Pd       4.09570874       5.51753681      18.87857083  T
Pd       6.82618125       5.51753671      18.87857161  T
Pd       9.55665393       5.51753669      18.87857143  T
Pd       5.46094486      -0.00000006      21.04388067  T
Pd      -0.00000029      -0.00000017      21.04388102  T
Pd       2.73047233      -0.00000011      21.04388102  T
Pd       1.36523578       2.36465829      21.04388099  T
Pd       4.09570829       2.36465829      21.04388107  T
Pd       6.82618139       2.36465832      21.04388072  T
Pd       2.73047265       4.72931718      21.04388068  T
Pd       5.46094461       4.72931722      21.04388071  T
Pd       8.19141763       4.72931715      21.04388032  T
