54
Lattice="8.191417821843899 0.0 0.0 0.0 8.191417821843899 0.0 0.0 0.0 29.6536784822636" Properties=species:S:1:pos:R:3:move_mask:L:1 fixed="0 1 2 3 4 5 6 7 8 9 10 11 12 13 14 15 16 17 18 19 20 21 22 23 24 25 26" energy=-186963.64655061 stress="-0.045863123937479 1.5590786751008e-10 3.3470345317445e-10 1.5590786751008e-10 -0.045863123943449 3.4244654075271e-10 3.3470345317445e-10 3.4244654075271e-10 -0.00020308841365442" free_energy=-186963.64655061 pbc="T T T"
Pd       1.36523630       1.36523630      10.00000000  F
Pd       4.09570891       1.36523630      10.00000000  F
Pd       6.82618152       1.36523630      10.00000000  F
Pd       1.36523630       4.09570891      10.00000000  F
Pd       4.09570891       4.09570891      10.00000000  F
Pd       6.82618152       4.09570891      10.00000000  F
Pd       1.36523630       6.82618152      10.00000000  F
Pd       4.09570891       6.82618152      10.00000000  F
Pd       6.82618152       6.82618152      10.00000000  F
Pd       0.00000000       0.00000000      11.93073570  F
Pd       2.73047261       0.00000000      11.93073570  F
Pd       5.46094521       0.00000000      11.93073570  F
Pd       0.00000000       2.73047261      11.93073570  F
Pd       2.73047261       2.73047261      11.93073570  F
Pd       5.46094521       2.73047261      11.93073570  F
Pd       0.00000000       5.46094521      11.93073570  F
Pd       2.73047261       5.46094521      11.93073570  F
Pd       5.46094521       5.46094521      11.93073570  F
Pd       1.36523630       1.36523630      13.86147139  F
Pd       4.09570891       1.36523630      13.86147139  F
Pd       1.36523630       4.09570891      13.86147139  F
Pd       4.09570891       4.09570891      13.86147139  F
Pd       1.36523630       6.82618152      13.86147139  F
Pd       4.09570891       6.82618152      13.86147139  F
Pd       6.82618152       1.36523630      13.86147139  F
Pd       6.82618152       4.09570891      13.86147139  F
Pd       6.82618152       6.82618152      13.86147139  F
Pd       0.00000016       0.00000016      15.76359357  T
Pd       2.73047114       0.00000016      15.76359658  T
Pd       5.46094655       0.00000015      15.76359660  T
Pd       0.00000016       2.73047114      15.76359659  T
Pd       2.73047115       2.73047115      15.76359961  T
Pd       5.46094655       2.73047114      15.76359961  T
Pd       0.00000016       5.46094655      15.76359659  T
Pd       2.73047115       5.46094655      15.76359961  T
Pd       5.46094655       5.46094655      15.76359962  T
Pd       1.36523217       1.36523217      17.69367434  T
Pd       4.09570891       1.36523217      17.69367876  T
Pd       6.82618555       1.36523217      17.69367436  T
Pd       1.36523218       4.09570891      17.69367876  T
Pd       4.09570891       4.09570891      17.69368319  T
Pd       6.82618555       4.09570891      17.69367878  T
Pd       1.36523218       6.82618555      17.69367435  T
Pd       4.09570891       6.82618555      17.69367877  T
Pd       6.82618555       6.82618555      17.69367438  T
Pd       0.00000004       0.00000004      19.62929249  T
Pd       2.73047065       0.00000004      19.62927906  T
Pd       5.46094715       0.00000004      19.62927900  T
Pd       0.00000004       2.73047065      19.62927906  T
Pd       2.73047065       2.73047065      19.62926564  T
Pd       5.46094716       2.73047065      19.62926557  T
Pd       0.00000004       5.46094715      19.62927900  T
Pd       2.73047065       5.46094716      19.62926557  T
Pd       5.46094716       5.46094716      19.62926552  T
