 Entering Gaussian System, Link 0=g16
 Initial command:
 /soft/gaussian/16-c.02/g16/l1.exe "/lcrc/project/ML-for-Electrolytes/ExaMol/tmp/ase_opt_9a566c34/Gau-4622.inp" -scrdir="/lcrc/project/ML-for-Electrolytes/ExaMol/tmp/ase_opt_9a566c34/"
 Entering Link 1 = /soft/gaussian/16-c.02/g16/l1.exe PID=      4623.
  
 Copyright (c) 1988-2021, Gaussian, Inc.  All Rights Reserved.
  
 This is part of the Gaussian(R) 16 program.  It is based on
 the Gaussian(R) 09 system (copyright 2009, Gaussian, Inc.),
 the Gaussian(R) 03 system (copyright 2003, Gaussian, Inc.),
 the Gaussian(R) 98 system (copyright 1998, Gaussian, Inc.),
 the Gaussian(R) 94 system (copyright 1995, Gaussian, Inc.),
 the Gaussian 92(TM) system (copyright 1992, Gaussian, Inc.),
 the Gaussian 90(TM) system (copyright 1990, Gaussian, Inc.),
 the Gaussian 88(TM) system (copyright 1988, Gaussian, Inc.),
 the Gaussian 86(TM) system (copyright 1986, Carnegie Mellon
 University), and the Gaussian 82(TM) system (copyright 1983,
 Carnegie Mellon University). Gaussian is a federally registered
 trademark of Gaussian, Inc.
  
 This software contains proprietary and confidential information,
 including trade secrets, belonging to Gaussian, Inc.
  
 This software is provided under written license and may be
 used, copied, transmitted, or stored only in accord with that
 written license.
  
 The following legend is applicable only to US Government
 contracts under FAR:
  
                    RESTRICTED RIGHTS LEGEND
  
 Use, reproduction and disclosure by the US Government is
 subject to restrictions as set forth in subparagraphs (a)
 and (c) of the Commercial Computer Software - Restricted
 Rights clause in FAR 52.227-19.
  
 Gaussian, Inc.
 340 Quinnipiac St., Bldg. 40, Wallingford CT 06492
  
  
 ---------------------------------------------------------------
 Warning -- This program may not be used in any manner that
 competes with the business of Gaussian, Inc. or will provide
 assistance to any competitor of Gaussian, Inc.  The licensee
 of this program is prohibited from giving any competitor of
 Gaussian, Inc. access to this program.  By using this program,
 the user acknowledges that Gaussian, Inc. is engaged in the
 business of creating and licensing software in the field of
 computational chemistry and represents and warrants to the
 licensee that it is not a competitor of Gaussian, Inc. and that
 it will not use this program in any manner prohibited above.
 ---------------------------------------------------------------
  

 Cite this work as:
 Gaussian 16, Revision C.02,
 M. J. Frisch, G. W. Trucks, H. B. Schlegel, G. E. Scuseria, 
 M. A. Robb, J. R. Cheeseman, G. Scalmani, V. Barone, 
 G. A. Petersson, H. Nakatsuji, X. Li, M. Caricato, A. V. Marenich, 
 J. Bloino, B. G. Janesko, R. Gomperts, B. Mennucci, H. P. Hratchian, 
 J. V. Ortiz, A. F. Izmaylov, J. L. Sonnenberg, D. Williams-Young, 
 F. Ding, F. Lipparini, F. Egidi, J. Goings, B. Peng, A. Petrone, 
 T. Henderson, D. Ranasinghe, V. G. Zakrzewski, J. Gao, N. Rega, 
 G. Zheng, W. Liang, M. Hada, M. Ehara, K. Toyota, R. Fukuda, 
 J. Hasegawa, M. Ishida, T. Nakajima, Y. Honda, O. Kitao, H. Nakai, 
 T. Vreven, K. Throssell, J. A. Montgomery, Jr., J. E. Peralta, 
 F. Ogliaro, M. J. Bearpark, J. J. Heyd, E. N. Brothers, K. N. Kudin, 
 V. N. Staroverov, T. A. Keith, R. Kobayashi, J. Normand, 
 K. Raghavachari, A. P. Rendell, J. C. Burant, S. S. Iyengar, 
 J. Tomasi, M. Cossi, J. M. Millam, M. Klene, C. Adamo, R. Cammi, 
 J. W. Ochterski, R. L. Martin, K. Morokuma, O. Farkas, 
 J. B. Foresman, and D. J. Fox, Gaussian, Inc., Wallingford CT, 2019.
 
 ******************************************
 Gaussian 16:  ES64L-G16RevC.02  7-Dec-2021
                20-Jun-2023 
 ******************************************
 %chk=gauss.chk
 ----------------------------------------------------------------------
 #P b3lyp/6-31g(2df,p) scf(xqc,MaxConventional=200) opt(calcfc,tight,ma
 xcycle=100)
 ----------------------------------------------------------------------
 1/6=100,7=10,10=4,18=20,19=15,26=3,38=1/1,3;
 2/9=110,12=2,17=6,18=5,40=1/2;
 3/5=1,6=6,7=104,11=2,25=1,30=1,71=2,74=-5,140=1/1,2,3;
 4//1;
 5/5=2,8=3,13=1,38=5,85=200/2,8;
 8/6=4,10=90,11=11/1;
 11/6=1,8=1,9=11,15=111,16=1/1,2,10;
 10/6=1,13=1/2;
 6/7=2,8=2,9=2,10=2,28=1/1;
 7/10=1,25=1/1,2,3,16;
 1/6=100,7=10,10=4,18=20,19=15,26=3/3(2);
 2/9=110/2;
 99//99;
 2/9=110/2;
 3/5=1,6=6,7=104,11=2,25=1,30=1,71=1,74=-5/1,2,3;
 4/5=5,16=3,69=1/1;
 5/5=2,8=3,13=1,38=5,85=200/2,8;
 7//1,2,3,16;
 1/6=100,7=10,18=20,19=15,26=3/3(-5);
 2/9=110/2;
 6/7=2,8=2,9=2,10=2,19=2,28=1/1;
 99/9=1/99;
 Leave Link    1 at Tue Jun 20 07:49:05 2023, MaxMem=           0 cpu:               0.1 elap:               0.3
 (Enter /soft/gaussian/16-c.02/g16/l101.exe)
 ------------------------------
 Gaussian input prepared by ASE
 ------------------------------
 Symbolic Z-matrix:
 Charge =  0 Multiplicity = 1
 O                     0.        0.        0.11926 
 H                     0.        0.76324  -0.47705 
 H                     0.       -0.76324  -0.47705 
 
 ITRead=  0  0  0
 MicOpt= -1 -1 -1
 NAtoms=      3 NQM=        3 NQMF=       0 NMMI=      0 NMMIF=      0
                NMic=       0 NMicF=      0.
                    Isotopes and Nuclear Properties:
 (Nuclear quadrupole moments (NQMom) in fm**2, nuclear magnetic moments (NMagM)
  in nuclear magnetons)

  Atom         1           2           3
 IAtWgt=          16           1           1
 AtmWgt=  15.9949146   1.0078250   1.0078250
 NucSpn=           0           1           1
 AtZEff=  -0.0000000  -0.0000000  -0.0000000
 NQMom=    0.0000000   0.0000000   0.0000000
 NMagM=    0.0000000   2.7928460   2.7928460
 AtZNuc=   8.0000000   1.0000000   1.0000000
 Leave Link  101 at Tue Jun 20 07:49:05 2023, MaxMem=   104857600 cpu:               0.1 elap:               0.1
 (Enter /soft/gaussian/16-c.02/g16/l103.exe)

 GradGradGradGradGradGradGradGradGradGradGradGradGradGradGradGradGradGrad
 Berny optimization.
 Initialization pass.
                           ----------------------------
                           !    Initial Parameters    !
                           ! (Angstroms and Degrees)  !
 --------------------------                            --------------------------
 ! Name  Definition              Value          Derivative Info.                !
 --------------------------------------------------------------------------------
 ! R1    R(1,2)                  0.9686         calculate D2E/DX2 analytically  !
 ! R2    R(1,3)                  0.9686         calculate D2E/DX2 analytically  !
 ! A1    A(2,1,3)              103.9999         calculate D2E/DX2 analytically  !
 --------------------------------------------------------------------------------
 Trust Radius=3.00D-01 FncErr=1.00D-07 GrdErr=1.00D-06 EigMax=2.50D+02 EigMin=1.00D-04
 Number of steps in this run=    100 maximum allowed number of steps=    100.
 GradGradGradGradGradGradGradGradGradGradGradGradGradGradGradGradGradGrad

 Leave Link  103 at Tue Jun 20 07:49:05 2023, MaxMem=   104857600 cpu:               0.0 elap:               0.0
 (Enter /soft/gaussian/16-c.02/g16/l202.exe)
                          Input orientation:                          
 ---------------------------------------------------------------------
 Center     Atomic      Atomic             Coordinates (Angstroms)
 Number     Number       Type             X           Y           Z
 ---------------------------------------------------------------------
      1          8           0        0.000000    0.000000    0.119262
      2          1           0        0.000000    0.763239   -0.477047
      3          1           0        0.000000   -0.763239   -0.477047
 ---------------------------------------------------------------------
                    Distance matrix (angstroms):
                    1          2          3
     1  O    0.000000
     2  H    0.968565   0.000000
     3  H    0.968565   1.526478   0.000000
 Stoichiometry    H2O
 Framework group  C2V[C2(O),SGV(H2)]
 Deg. of freedom     2
 Full point group                 C2V     NOp   4
 Largest Abelian subgroup         C2V     NOp   4
 Largest concise Abelian subgroup C2      NOp   2
                         Standard orientation:                         
 ---------------------------------------------------------------------
 Center     Atomic      Atomic             Coordinates (Angstroms)
 Number     Number       Type             X           Y           Z
 ---------------------------------------------------------------------
      1          8           0        0.000000   -0.000000    0.119262
      2          1           0        0.000000    0.763239   -0.477047
      3          1           0       -0.000000   -0.763239   -0.477047
 ---------------------------------------------------------------------
 Rotational constants (GHZ):         793.9711755         430.4086126         279.1062344
 Leave Link  202 at Tue Jun 20 07:49:06 2023, MaxMem=   104857600 cpu:               0.0 elap:               0.1
 (Enter /soft/gaussian/16-c.02/g16/l301.exe)
 Standard basis: 6-31G(2df,p) (6D, 7F)
 Ernie: Thresh=  0.10000D-02 Tol=  0.10000D-05 Strict=F.
 There are    18 symmetry adapted cartesian basis functions of A1  symmetry.
 There are     4 symmetry adapted cartesian basis functions of A2  symmetry.
 There are     8 symmetry adapted cartesian basis functions of B1  symmetry.
 There are    11 symmetry adapted cartesian basis functions of B2  symmetry.
 There are    17 symmetry adapted basis functions of A1  symmetry.
 There are     4 symmetry adapted basis functions of A2  symmetry.
 There are     7 symmetry adapted basis functions of B1  symmetry.
 There are    10 symmetry adapted basis functions of B2  symmetry.
    38 basis functions,    58 primitive gaussians,    41 cartesian basis functions
     5 alpha electrons        5 beta electrons
       nuclear repulsion energy         9.0882937691 Hartrees.
 IExCor=  402 DFT=T Ex+Corr=B3LYP ExCW=0 ScaHFX=  0.200000
 ScaDFX=  0.800000  0.720000  1.000000  0.810000 ScalE2=  1.000000  1.000000
 IRadAn=      5 IRanWt=     -1 IRanGd=            0 ICorTp=0 IEmpDi=  4
 NAtoms=    3 NActive=    3 NUniq=    2 SFac= 2.25D+00 NAtFMM=   60 NAOKFM=F Big=F
 Integral buffers will be    131072 words long.
 Raffenetti 2 integral format.
 Two-electron integral symmetry is turned on.
 Leave Link  301 at Tue Jun 20 07:49:06 2023, MaxMem=   104857600 cpu:               0.1 elap:               0.1
 (Enter /soft/gaussian/16-c.02/g16/l302.exe)
 NPDir=0 NMtPBC=     1 NCelOv=     1 NCel=       1 NClECP=     1 NCelD=      1
         NCelK=      1 NCelE2=     1 NClLst=     1 CellRange=     0.0.
 One-electron integrals computed using PRISM.
 One-electron integral symmetry used in STVInt
 NBasis=    38 RedAO= T EigKep=  1.64D-03  NBF=    17     4     7    10
 NBsUse=    38 1.00D-06 EigRej= -1.00D+00 NBFU=    17     4     7    10
 Precomputing XC quadrature grid using
 IXCGrd= 4 IRadAn=           5 IRanWt=          -1 IRanGd=           0 AccXCQ= 0.00D+00.
 Generated NRdTot=       0 NPtTot=           0 NUsed=           0 NTot=          32
 NSgBfM=    41    41    41    41    41 MxSgAt=     3 MxSgA2=     3.
 Leave Link  302 at Tue Jun 20 07:49:06 2023, MaxMem=   104857600 cpu:               0.1 elap:               0.1
 (Enter /soft/gaussian/16-c.02/g16/l303.exe)
 DipDrv:  MaxL=1.
 Leave Link  303 at Tue Jun 20 07:49:06 2023, MaxMem=   104857600 cpu:               0.0 elap:               0.1
 (Enter /soft/gaussian/16-c.02/g16/l401.exe)
 ExpMin= 1.61D-01 ExpMax= 5.48D+03 ExpMxC= 8.25D+02 IAcc=3 IRadAn=         5 AccDes= 0.00D+00
 Harris functional with IExCor=  402 and IRadAn=       5 diagonalized for initial guess.
 HarFok:  IExCor=  402 AccDes= 0.00D+00 IRadAn=         5 IDoV= 1 UseB2=F ITyADJ=14
 ICtDFT=  3500011 ScaDFX=  1.000000  1.000000  1.000000  1.000000
 FoFCou: FMM=F IPFlag=           0 FMFlag=      100000 FMFlg1=           0
         NFxFlg=           0 DoJE=T BraDBF=F KetDBF=T FulRan=T
         wScrn=  0.000000 ICntrl=       500 IOpCl=  0 I1Cent=   200000004 NGrid=           0
         NMat0=    1 NMatS0=      1 NMatT0=    0 NMatD0=    1 NMtDS0=    0 NMtDT0=    0
 Petite list used in FoFCou.
 Harris En= -76.4636133622591    
 JPrj=0 DoOrth=F DoCkMO=F.
 Initial guess orbital symmetries:
       Occupied  (A1) (A1) (B2) (A1) (B1)
       Virtual   (A1) (B2) (B2) (A1) (A1) (B1) (A2) (A1) (B1) (B2)
                 (A1) (A1) (B2) (B2) (A2) (B1) (B2) (A1) (A1) (A1)
                 (A2) (B1) (A1) (B2) (B1) (A1) (B1) (B2) (A2) (A1)
                 (B2) (A1) (A1)
 The electronic state of the initial guess is 1-A1.
 Leave Link  401 at Tue Jun 20 07:49:06 2023, MaxMem=   104857600 cpu:               0.2 elap:               0.2
 (Enter /soft/gaussian/16-c.02/g16/l502.exe)
 Keep R1 ints in memory in symmetry-blocked form, NReq=2229636.
 FoFCou: FMM=F IPFlag=           0 FMFlag=           0 FMFlg1=           0
         NFxFlg=           0 DoJE=F BraDBF=F KetDBF=F FulRan=T
         wScrn=  0.000000 ICntrl=       600 IOpCl=  0 I1Cent=           0 NGrid=           0
         NMat0=    1 NMatS0=    741 NMatT0=    0 NMatD0=    1 NMtDS0=    0 NMtDT0=    0
 Petite list used in FoFCou.
 Closed shell SCF:
 Using DIIS extrapolation, IDIIS=  1040.
 NGot=   104857600 LenX=   104778050 LenY=   104775928
 Requested convergence on RMS density matrix=1.00D-08 within 200 cycles.
 Requested convergence on MAX density matrix=1.00D-06.
 Requested convergence on             energy=1.00D-06.
 No special actions if energy rises.
 Integral accuracy reduced to 1.0D-05 until final iterations.

 Cycle   1  Pass 0  IDiag  1:
 E= -76.3465461760256    
 DIIS: error= 4.98D-02 at cycle   1 NSaved=   1.
 NSaved= 1 IEnMin= 1 EnMin= -76.3465461760256     IErMin= 1 ErrMin= 4.98D-02
 ErrMax= 4.98D-02  0.00D+00 EMaxC= 1.00D-01 BMatC= 1.08D-01 BMatP= 1.08D-01
 IDIUse=3 WtCom= 5.02D-01 WtEn= 4.98D-01
 Coeff-Com:  0.100D+01
 Coeff-En:   0.100D+01
 Coeff:      0.100D+01
 Gap=     0.214 Goal=   None    Shift=    0.000
 GapD=    0.214 DampG=1.000 DampE=0.500 DampFc=0.5000 IDamp=-1.
 Damping current iteration by 5.00D-01
 RMSDP=1.26D-02 MaxDP=1.74D-01              OVMax= 2.04D-01

 Cycle   2  Pass 0  IDiag  1:
 E= -76.3723140044821     Delta-E=       -0.025767828457 Rises=F Damp=T
 DIIS: error= 1.40D-02 at cycle   2 NSaved=   2.
 NSaved= 2 IEnMin= 2 EnMin= -76.3723140044821     IErMin= 2 ErrMin= 1.40D-02
 ErrMax= 1.40D-02  0.00D+00 EMaxC= 1.00D-01 BMatC= 8.11D-03 BMatP= 1.08D-01
 IDIUse=3 WtCom= 8.60D-01 WtEn= 1.40D-01
 Coeff-Com:  0.196D+00 0.804D+00
 Coeff-En:   0.318D+00 0.682D+00
 Coeff:      0.213D+00 0.787D+00
 Gap=     0.346 Goal=   None    Shift=    0.000
 RMSDP=1.43D-03 MaxDP=1.69D-02 DE=-2.58D-02 OVMax= 1.18D-01

 Cycle   3  Pass 0  IDiag  1:
 E= -76.4258957017450     Delta-E=       -0.053581697263 Rises=F Damp=F
 DIIS: error= 1.69D-03 at cycle   3 NSaved=   3.
 NSaved= 3 IEnMin= 3 EnMin= -76.4258957017450     IErMin= 3 ErrMin= 1.69D-03
 ErrMax= 1.69D-03  0.00D+00 EMaxC= 1.00D-01 BMatC= 1.52D-04 BMatP= 8.11D-03
 IDIUse=3 WtCom= 9.83D-01 WtEn= 1.69D-02
 Coeff-Com:  0.269D-01-0.416D-01 0.101D+01
 Coeff-En:   0.000D+00 0.000D+00 0.100D+01
 Coeff:      0.264D-01-0.409D-01 0.101D+01
 Gap=     0.359 Goal=   None    Shift=    0.000
 RMSDP=1.66D-04 MaxDP=2.64D-03 DE=-5.36D-02 OVMax= 2.56D-03

 Cycle   4  Pass 0  IDiag  1:
 E= -76.4259926073768     Delta-E=       -0.000096905632 Rises=F Damp=F
 DIIS: error= 2.21D-04 at cycle   4 NSaved=   4.
 NSaved= 4 IEnMin= 4 EnMin= -76.4259926073768     IErMin= 4 ErrMin= 2.21D-04
 ErrMax= 2.21D-04  0.00D+00 EMaxC= 1.00D-01 BMatC= 1.96D-06 BMatP= 1.52D-04
 IDIUse=3 WtCom= 9.98D-01 WtEn= 2.21D-03
 Coeff-Com:  0.717D-02-0.169D-01 0.258D+00 0.752D+00
 Coeff-En:   0.000D+00 0.000D+00 0.000D+00 0.100D+01
 Coeff:      0.716D-02-0.168D-01 0.257D+00 0.752D+00
 Gap=     0.359 Goal=   None    Shift=    0.000
 RMSDP=1.55D-05 MaxDP=2.06D-04 DE=-9.69D-05 OVMax= 2.63D-04

 Cycle   5  Pass 0  IDiag  1:
 E= -76.4259938225796     Delta-E=       -0.000001215203 Rises=F Damp=F
 DIIS: error= 4.01D-05 at cycle   5 NSaved=   5.
 NSaved= 5 IEnMin= 5 EnMin= -76.4259938225796     IErMin= 5 ErrMin= 4.01D-05
 ErrMax= 4.01D-05  0.00D+00 EMaxC= 1.00D-01 BMatC= 7.42D-08 BMatP= 1.96D-06
 IDIUse=1 WtCom= 1.00D+00 WtEn= 0.00D+00
 Coeff-Com:  0.772D-03-0.962D-03 0.364D-02 0.414D-01 0.955D+00
 Coeff:      0.772D-03-0.962D-03 0.364D-02 0.414D-01 0.955D+00
 Gap=     0.359 Goal=   None    Shift=    0.000
 RMSDP=4.21D-06 MaxDP=6.30D-05 DE=-1.22D-06 OVMax= 6.73D-05

 Initial convergence to 1.0D-05 achieved.  Increase integral accuracy.
 Cycle   6  Pass 1  IDiag  1:
 E= -76.4259945507622     Delta-E=       -0.000000728183 Rises=F Damp=F
 DIIS: error= 1.87D-06 at cycle   1 NSaved=   1.
 NSaved= 1 IEnMin= 1 EnMin= -76.4259945507622     IErMin= 1 ErrMin= 1.87D-06
 ErrMax= 1.87D-06  0.00D+00 EMaxC= 1.00D-01 BMatC= 5.55D-11 BMatP= 5.55D-11
 IDIUse=1 WtCom= 1.00D+00 WtEn= 0.00D+00
 Coeff-Com:  0.100D+01
 Coeff:      0.100D+01
 Gap=     0.359 Goal=   None    Shift=    0.000
 RMSDP=4.21D-06 MaxDP=6.30D-05 DE=-7.28D-07 OVMax= 3.36D-06

 Cycle   7  Pass 1  IDiag  1:
 E= -76.4259945508086     Delta-E=       -0.000000000046 Rises=F Damp=F
 DIIS: error= 7.18D-07 at cycle   2 NSaved=   2.
 NSaved= 2 IEnMin= 2 EnMin= -76.4259945508086     IErMin= 2 ErrMin= 7.18D-07
 ErrMax= 7.18D-07  0.00D+00 EMaxC= 1.00D-01 BMatC= 9.04D-12 BMatP= 5.55D-11
 IDIUse=1 WtCom= 1.00D+00 WtEn= 0.00D+00
 Coeff-Com:  0.274D+00 0.726D+00
 Coeff:      0.274D+00 0.726D+00
 Gap=     0.359 Goal=   None    Shift=    0.000
 RMSDP=4.06D-08 MaxDP=3.65D-07 DE=-4.64D-11 OVMax= 8.01D-07

 Cycle   8  Pass 1  IDiag  1:
 E= -76.4259945508151     Delta-E=       -0.000000000006 Rises=F Damp=F
 DIIS: error= 6.88D-08 at cycle   3 NSaved=   3.
 NSaved= 3 IEnMin= 3 EnMin= -76.4259945508151     IErMin= 3 ErrMin= 6.88D-08
 ErrMax= 6.88D-08  0.00D+00 EMaxC= 1.00D-01 BMatC= 2.16D-13 BMatP= 9.04D-12
 IDIUse=1 WtCom= 1.00D+00 WtEn= 0.00D+00
 Coeff-Com:  0.387D-01 0.144D+00 0.817D+00
 Coeff:      0.387D-01 0.144D+00 0.817D+00
 Gap=     0.359 Goal=   None    Shift=    0.000
 RMSDP=1.35D-08 MaxDP=2.03D-07 DE=-6.48D-12 OVMax= 2.37D-07

 Cycle   9  Pass 1  IDiag  1:
 E= -76.4259945508152     Delta-E=       -0.000000000000 Rises=F Damp=F
 DIIS: error= 6.71D-08 at cycle   4 NSaved=   4.
 NSaved= 4 IEnMin= 4 EnMin= -76.4259945508152     IErMin= 4 ErrMin= 6.71D-08
 ErrMax= 6.71D-08  0.00D+00 EMaxC= 1.00D-01 BMatC= 1.81D-13 BMatP= 2.16D-13
 IDIUse=1 WtCom= 1.00D+00 WtEn= 0.00D+00
 Coeff-Com: -0.140D-01-0.613D-02 0.490D+00 0.530D+00
 Coeff:     -0.140D-01-0.613D-02 0.490D+00 0.530D+00
 Gap=     0.359 Goal=   None    Shift=    0.000
 RMSDP=6.24D-09 MaxDP=1.03D-07 DE=-1.14D-13 OVMax= 9.34D-08

 SCF Done:  E(RB3LYP) =  -76.4259945508     A.U. after    9 cycles
            NFock=  9  Conv=0.62D-08     -V/T= 2.0054
 KE= 7.601514680488D+01 PE=-1.990170734691D+02 EE= 3.748763834426D+01
 Leave Link  502 at Tue Jun 20 07:49:07 2023, MaxMem=   104857600 cpu:               0.6 elap:               0.6
 (Enter /soft/gaussian/16-c.02/g16/l508.exe)
 QCSCF skips out because SCF is already converged.
 Leave Link  508 at Tue Jun 20 07:49:07 2023, MaxMem=   104857600 cpu:               0.0 elap:               0.0
 (Enter /soft/gaussian/16-c.02/g16/l801.exe)
 DoSCS=F DFT=T ScalE2(SS,OS)=  1.000000  1.000000
 Range of M.O.s used for correlation:     1    38
 NBasis=    38 NAE=     5 NBE=     5 NFC=     0 NFV=     0
 NROrb=     38 NOA=     5 NOB=     5 NVA=    33 NVB=    33

 **** Warning!!: The largest alpha MO coefficient is  0.17735924D+02

 Leave Link  801 at Tue Jun 20 07:49:07 2023, MaxMem=   104857600 cpu:               0.0 elap:               0.0
 (Enter /soft/gaussian/16-c.02/g16/l1101.exe)
 Using compressed storage, NAtomX=     3.
 Will process      4 centers per pass.
 Leave Link 1101 at Tue Jun 20 07:49:08 2023, MaxMem=   104857600 cpu:               0.1 elap:               0.1
 (Enter /soft/gaussian/16-c.02/g16/l1102.exe)
 Symmetrizing basis deriv contribution to polar:
 IMax=3 JMax=2 DiffMx= 0.00D+00
 Leave Link 1102 at Tue Jun 20 07:49:08 2023, MaxMem=   104857600 cpu:               0.0 elap:               0.1
 (Enter /soft/gaussian/16-c.02/g16/l1110.exe)
 Forming Gx(P) for the SCF density, NAtomX=     3.
 Integral derivatives from FoFJK, PRISM(SPDF).
 Do as many integral derivatives as possible in FoFJK.
 G2DrvN: MDV=     104857167.
 G2DrvN: will do     4 centers at a time, making    1 passes.
 Calling FoFCou, ICntrl=  3107 FMM=F I1Cent=   0 AccDes= 0.00D+00.
 FoFJK:  IHMeth= 1 ICntrl=    3107 DoSepK=F KAlg= 0 I1Cent=           0 FoldK=F
 IRaf=         0 NMat=       1 IRICut=       1 DoRegI=T DoRafI=F ISym2E= 1 IDoP0=0 IntGTp=1.
 FoFCou: FMM=F IPFlag=           0 FMFlag=      100000 FMFlg1=           0
         NFxFlg=           0 DoJE=F BraDBF=F KetDBF=F FulRan=T
         wScrn=  0.000000 ICntrl=      3107 IOpCl=  0 I1Cent=           0 NGrid=           0
         NMat0=    1 NMatS0=      1 NMatT0=    0 NMatD0=    1 NMtDS0=    0 NMtDT0=    0
 Petite list used in FoFCou.
 End of G2Drv F.D. properties file   721 does not exist.
 End of G2Drv F.D. properties file   722 does not exist.
 End of G2Drv F.D. properties file   788 does not exist.
 Leave Link 1110 at Tue Jun 20 07:49:09 2023, MaxMem=   104857600 cpu:               0.8 elap:               0.9
 (Enter /soft/gaussian/16-c.02/g16/l1002.exe)
 Minotr:  Closed shell wavefunction.
          IDoAtm=111
          Direct CPHF calculation.
          Differentiating once with respect to nuclear coordinates.
          Using symmetry in CPHF.
          Requested convergence is 1.0D-08 RMS, and 1.0D-07 maximum.
          Secondary convergence is 1.0D-12 RMS, and 1.0D-12 maximum.
          NewPWx=T KeepS1=F KeepF1=F KeepIn=T MapXYZ=F SortEE=F KeepMc=T.
          874 words used for storage of precomputed grid.
 Keep R1 ints in memory in symmetry-blocked form, NReq=2231089.
 FoFCou: FMM=F IPFlag=           0 FMFlag=           0 FMFlg1=           0
         NFxFlg=           0 DoJE=F BraDBF=F KetDBF=F FulRan=T
         wScrn=  0.000000 ICntrl=       600 IOpCl=  0 I1Cent=           0 NGrid=           0
         NMat0=    1 NMatS0=    741 NMatT0=    0 NMatD0=    1 NMtDS0=    0 NMtDT0=    0
 Petite list used in FoFCou.
          MDV=     104857600 using IRadAn=       1.
          Solving linear equations simultaneously, MaxMat=       0.
          There are     9 degrees of freedom in the 1st order CPHF.  IDoFFX=4 NUNeed=     9.
      6 vectors produced by pass  0 Test12= 1.83D-15 1.11D-08 XBig12= 6.27D-02 1.76D-01.
 AX will form     6 AO Fock derivatives at one time.
      6 vectors produced by pass  1 Test12= 1.83D-15 1.11D-08 XBig12= 1.56D-02 6.07D-02.
      6 vectors produced by pass  2 Test12= 1.83D-15 1.11D-08 XBig12= 2.14D-04 6.28D-03.
      6 vectors produced by pass  3 Test12= 1.83D-15 1.11D-08 XBig12= 1.01D-06 3.74D-04.
      6 vectors produced by pass  4 Test12= 1.83D-15 1.11D-08 XBig12= 2.18D-09 1.75D-05.
      4 vectors produced by pass  5 Test12= 1.83D-15 1.11D-08 XBig12= 1.86D-12 5.07D-07.
      2 vectors produced by pass  6 Test12= 1.83D-15 1.11D-08 XBig12= 1.20D-15 1.32D-08.
 InvSVY:  IOpt=1 It=  1 EMax= 3.33D-16
 Solved reduced A of dimension    36 with     6 vectors.
 FullF1:  Do perturbations      4 to       9.
 End of Minotr F.D. properties file   721 does not exist.
 End of Minotr F.D. properties file   722 does not exist.
 End of Minotr F.D. properties file   788 does not exist.
 Leave Link 1002 at Tue Jun 20 07:49:11 2023, MaxMem=   104857600 cpu:               1.3 elap:               1.5
 (Enter /soft/gaussian/16-c.02/g16/l601.exe)
 Copying SCF densities to generalized density rwf, IOpCl= 0 IROHF=0.

 **********************************************************************

            Population analysis using the SCF Density.

 **********************************************************************

 Orbital symmetries:
       Occupied  (A1) (A1) (B2) (A1) (B1)
       Virtual   (A1) (B2) (B2) (A1) (A1) (B1) (A2) (A1) (B1) (A1)
                 (B2) (A1) (B2) (B2) (A2) (B1) (B2) (A1) (A1) (A1)
                 (A2) (B1) (A1) (B2) (B1) (A1) (B1) (B2) (A2) (A1)
                 (B2) (A1) (A1)
 The electronic state is 1-A1.
 Alpha  occ. eigenvalues --  -19.12966  -0.99325  -0.51170  -0.37133  -0.29219
 Alpha virt. eigenvalues --    0.06695   0.15102   0.62192   0.67796   0.82933
 Alpha virt. eigenvalues --    0.86470   0.88588   0.91826   0.94881   1.00196
 Alpha virt. eigenvalues --    1.02000   1.70035   2.10370   2.30542   2.46388
 Alpha virt. eigenvalues --    2.54926   2.85527   2.87409   3.04795   4.11348
 Alpha virt. eigenvalues --    4.12142   4.13929   4.44157   4.75638   5.01936
 Alpha virt. eigenvalues --    5.19186   5.40049   5.40887   5.52613   5.80628
 Alpha virt. eigenvalues --    5.86098   6.85635  12.79006
          Condensed to atoms (all electrons):
               1          2          3
     1  O    8.005833   0.292936   0.292936
     2  H    0.292936   0.445669  -0.034457
     3  H    0.292936  -0.034457   0.445669
 Mulliken charges:
               1
     1  O   -0.591704
     2  H    0.295852
     3  H    0.295852
 Sum of Mulliken charges =   0.00000
 Mulliken charges with hydrogens summed into heavy atoms:
               1
     1  O    0.000000
 APT charges:
               1
     1  O   -0.919784
     2  H    0.459892
     3  H    0.459892
 Sum of APT charges =   0.00000
 APT charges with hydrogens summed into heavy atoms:
               1
     1  O    0.000000
 Electronic spatial extent (au):  <R**2>=             19.0861
 Charge=              0.0000 electrons
 Dipole moment (field-independent basis, Debye):
    X=             -0.0000    Y=              0.0000    Z=             -1.8493  Tot=              1.8493
 Quadrupole moment (field-independent basis, Debye-Ang):
   XX=             -7.1342   YY=             -4.2693   ZZ=             -5.9391
   XY=              0.0000   XZ=              0.0000   YZ=              0.0000
 Traceless Quadrupole moment (field-independent basis, Debye-Ang):
   XX=             -1.3533   YY=              1.5116   ZZ=             -0.1582
   XY=              0.0000   XZ=              0.0000   YZ=              0.0000
 Octapole moment (field-independent basis, Debye-Ang**2):
  XXX=              0.0000  YYY=              0.0000  ZZZ=             -0.9071  XYY=             -0.0000
  XXY=              0.0000  XXZ=             -0.1965  XZZ=              0.0000  YZZ=             -0.0000
  YYZ=             -1.1764  XYZ=             -0.0000
 Hexadecapole moment (field-independent basis, Debye-Ang**3):
 XXXX=             -5.1448 YYYY=             -6.0878 ZZZZ=             -6.1795 XXXY=             -0.0000
 XXXZ=             -0.0000 YYYX=             -0.0000 YYYZ=             -0.0000 ZZZX=             -0.0000
 ZZZY=             -0.0000 XXYY=             -2.1290 XXZZ=             -1.9358 YYZZ=             -1.7256
 XXYZ=             -0.0000 YYXZ=              0.0000 ZZXY=             -0.0000
 N-N= 9.088293769139D+00 E-N=-1.990170760087D+02  KE= 7.601514680488D+01
 Symmetry A1   KE= 6.788439947966D+01
 Symmetry A2   KE= 3.040405356745D-34
 Symmetry B1   KE= 4.579204110187D+00
 Symmetry B2   KE= 3.551543215032D+00
  Exact polarizability:       0.000       0.000       0.000       0.000       0.000       0.000
 Approx polarizability:       5.268       0.000      10.490       0.000      -0.000       8.530
 No NMR shielding tensors so no spin-rotation constants.
 Leave Link  601 at Tue Jun 20 07:49:11 2023, MaxMem=   104857600 cpu:               0.1 elap:               0.1
 (Enter /soft/gaussian/16-c.02/g16/l701.exe)
 ... and contract with generalized density number  0.
 Compute integral second derivatives.
 Leave Link  701 at Tue Jun 20 07:49:12 2023, MaxMem=   104857600 cpu:               0.2 elap:               0.2
 (Enter /soft/gaussian/16-c.02/g16/l702.exe)
 L702 exits ... SP integral derivatives will be done elsewhere.
 Leave Link  702 at Tue Jun 20 07:49:12 2023, MaxMem=   104857600 cpu:               0.0 elap:               0.0
 (Enter /soft/gaussian/16-c.02/g16/l703.exe)
 Integral derivatives from FoFJK, PRISM(SPDF).
 Compute integral second derivatives, UseDBF=F ICtDFT=           0.
 Calling FoFJK, ICntrl=    100127 FMM=F ISym2X=1 I1Cent= 0 IOpClX= 0 NMat=1 NMatS=1 NMatT=0.
 FoFJK:  IHMeth= 1 ICntrl=  100127 DoSepK=F KAlg= 0 I1Cent=           0 FoldK=F
 IRaf=         0 NMat=       1 IRICut=       1 DoRegI=T DoRafI=F ISym2E= 1 IDoP0=0 IntGTp=1.
 FoFCou: FMM=F IPFlag=           0 FMFlag=      100000 FMFlg1=         800
         NFxFlg=           0 DoJE=F BraDBF=F KetDBF=F FulRan=T
         wScrn=  0.000000 ICntrl=    100127 IOpCl=  0 I1Cent=           0 NGrid=           0
         NMat0=    1 NMatS0=      1 NMatT0=    0 NMatD0=    1 NMtDS0=    0 NMtDT0=    0
 Petite list used in FoFCou.
 Leave Link  703 at Tue Jun 20 07:49:13 2023, MaxMem=   104857600 cpu:               1.7 elap:               1.7
 (Enter /soft/gaussian/16-c.02/g16/l716.exe)
 Dipole        =-4.94637908D-17 2.28288158D-17-7.27566608D-01
 Polarizability= 0.00000000D+00 0.00000000D+00 0.00000000D+00
                 0.00000000D+00 0.00000000D+00 0.00000000D+00
 ***** Axes restored to original set *****
 -------------------------------------------------------------------
 Center     Atomic                   Forces (Hartrees/Bohr)
 Number     Number              X              Y              Z
 -------------------------------------------------------------------
      1        8          -0.000000000    0.000000000   -0.006569831
      2        1          -0.000000000   -0.005632960    0.003284915
      3        1           0.000000000    0.005632960    0.003284915
 -------------------------------------------------------------------
 Cartesian Forces:  Max     0.006569831 RMS     0.003774247
 Force constants in Cartesian coordinates: 
                1             2             3             4             5 
      1  0.586179D-02
      2  0.000000D+00  0.643909D+00
      3  0.000000D+00  0.000000D+00  0.443115D+00
      4 -0.293090D-02  0.000000D+00  0.000000D+00  0.342629D-02
      5  0.000000D+00 -0.321955D+00  0.186597D+00  0.000000D+00  0.353696D+00
      6  0.000000D+00  0.249250D+00 -0.221558D+00  0.000000D+00 -0.217923D+00
      7 -0.293090D-02  0.000000D+00  0.000000D+00 -0.495392D-03  0.000000D+00
      8  0.000000D+00 -0.321955D+00 -0.186597D+00  0.000000D+00 -0.317412D-01
      9  0.000000D+00 -0.249250D+00 -0.221558D+00  0.000000D+00  0.313267D-01
                6             7             8             9 
      6  0.210103D+00
      7  0.000000D+00  0.342629D-02
      8 -0.313267D-01  0.000000D+00  0.353696D+00
      9  0.114544D-01  0.000000D+00  0.217923D+00  0.210103D+00
 FormGI is forming the generalized inverse of G from B-inverse, IUseBI=4.
 Force constants in internal coordinates: 
                1             2             3 
      1  0.510721D+00
      2 -0.634700D-02  0.510721D+00
      3  0.318886D-01  0.318886D-01  0.165980D+00
 Leave Link  716 at Tue Jun 20 07:49:14 2023, MaxMem=   104857600 cpu:               0.1 elap:               0.2
 (Enter /soft/gaussian/16-c.02/g16/l103.exe)

 GradGradGradGradGradGradGradGradGradGradGradGradGradGradGradGradGradGrad
 Berny optimization.
 Red2BG is reusing G-inverse.
 Internal  Forces:  Max     0.006461228 RMS     0.005356803
 Search for a local minimum.
 Step number   1 out of a maximum of  100
 All quantities printed in internal units (Hartrees-Bohrs-Radians)
 RMS Force = .53568D-02 SwitMx=.10000D-02 MixMth= 1
 Mixed Optimization -- RFO/linear search
 Second derivative matrix not updated -- analytic derivatives used.
 The second derivative matrix:
                          R1        R2        A1
           R1           0.51072
           R2          -0.00635   0.51072
           A1           0.03189   0.03189   0.16598
 ITU=  0
     Eigenvalues ---    0.16007   0.51028   0.51707
 RFO step:  Lambda=-1.69364504D-04 EMin= 1.60073401D-01
 Linear search not attempted -- first point.
 Iteration  1 RMS(Cart)=  0.01047566 RMS(Int)=  0.00001990
 Iteration  2 RMS(Cart)=  0.00001711 RMS(Int)=  0.00000000
 Iteration  3 RMS(Cart)=  0.00000000 RMS(Int)=  0.00000000
 ITry= 1 IFail=0 DXMaxC= 1.26D-02 DCOld= 1.00D+10 DXMaxT= 3.00D-01 DXLimC= 3.00D+00 Rises=F
 ClnCor:  largest displacement from symmetrization is 1.42D-15 for atom     3.
 Variable       Old X    -DE/DX   Delta X   Delta X   Delta X     New X
                                 (Linear)    (Quad)   (Total)
    R1        1.83032  -0.00646   0.00000  -0.01250  -0.01250   1.81783
    R2        1.83032  -0.00646   0.00000  -0.01250  -0.01250   1.81783
    A1        1.81514  -0.00161   0.00000  -0.00489  -0.00489   1.81025
         Item               Value     Threshold  Converged?
 Maximum Force            0.006461     0.000015     NO 
 RMS     Force            0.005357     0.000010     NO 
 Maximum Displacement     0.012589     0.000060     NO 
 RMS     Displacement     0.010467     0.000040     NO 
 Predicted change in Energy=-8.471074D-05
 Lowest energy point so far.  Saving SCF results.
 GradGradGradGradGradGradGradGradGradGradGradGradGradGradGradGradGradGrad

 Leave Link  103 at Tue Jun 20 07:49:14 2023, MaxMem=   104857600 cpu:               0.0 elap:               0.0
 (Enter /soft/gaussian/16-c.02/g16/l202.exe)
                          Input orientation:                          
 ---------------------------------------------------------------------
 Center     Atomic      Atomic             Coordinates (Angstroms)
 Number     Number       Type             X           Y           Z
 ---------------------------------------------------------------------
      1          8           0        0.000000    0.000000    0.117782
      2          1           0        0.000000    0.756577   -0.476307
      3          1           0       -0.000000   -0.756577   -0.476307
 ---------------------------------------------------------------------
                    Distance matrix (angstroms):
                    1          2          3
     1  O    0.000000
     2  H    0.961952   0.000000
     3  H    0.961952   1.513154   0.000000
 Stoichiometry    H2O
 Framework group  C2V[C2(O),SGV(H2)]
 Deg. of freedom     2
 Full point group                 C2V     NOp   4
 RotChk:  IX=0 Diff= 3.20D-16
 Largest Abelian subgroup         C2V     NOp   4
 Largest concise Abelian subgroup C2      NOp   2
                         Standard orientation:                         
 ---------------------------------------------------------------------
 Center     Atomic      Atomic             Coordinates (Angstroms)
 Number     Number       Type             X           Y           Z
 ---------------------------------------------------------------------
      1          8           0        0.000000    0.000000    0.118818
      2          1           0       -0.000000    0.756577   -0.475272
      3          1           0       -0.000000   -0.756577   -0.475272
 ---------------------------------------------------------------------
 Rotational constants (GHZ):         799.9144765         438.0216575         283.0354937
 Leave Link  202 at Tue Jun 20 07:49:14 2023, MaxMem=   104857600 cpu:               0.0 elap:               0.0
 (Enter /soft/gaussian/16-c.02/g16/l301.exe)
 Standard basis: 6-31G(2df,p) (6D, 7F)
 Ernie: Thresh=  0.10000D-02 Tol=  0.10000D-05 Strict=F.
 There are    18 symmetry adapted cartesian basis functions of A1  symmetry.
 There are     4 symmetry adapted cartesian basis functions of A2  symmetry.
 There are     8 symmetry adapted cartesian basis functions of B1  symmetry.
 There are    11 symmetry adapted cartesian basis functions of B2  symmetry.
 There are    17 symmetry adapted basis functions of A1  symmetry.
 There are     4 symmetry adapted basis functions of A2  symmetry.
 There are     7 symmetry adapted basis functions of B1  symmetry.
 There are    10 symmetry adapted basis functions of B2  symmetry.
    38 basis functions,    58 primitive gaussians,    41 cartesian basis functions
     5 alpha electrons        5 beta electrons
       nuclear repulsion energy         9.1514420379 Hartrees.
 IExCor=  402 DFT=T Ex+Corr=B3LYP ExCW=0 ScaHFX=  0.200000
 ScaDFX=  0.800000  0.720000  1.000000  0.810000 ScalE2=  1.000000  1.000000
 IRadAn=      5 IRanWt=     -1 IRanGd=            0 ICorTp=0 IEmpDi=  4
 NAtoms=    3 NActive=    3 NUniq=    2 SFac= 2.25D+00 NAtFMM=   60 NAOKFM=F Big=F
 Integral buffers will be    131072 words long.
 Raffenetti 2 integral format.
 Two-electron integral symmetry is turned on.
 Leave Link  301 at Tue Jun 20 07:49:14 2023, MaxMem=   104857600 cpu:               0.1 elap:               0.1
 (Enter /soft/gaussian/16-c.02/g16/l302.exe)
 NPDir=0 NMtPBC=     1 NCelOv=     1 NCel=       1 NClECP=     1 NCelD=      1
         NCelK=      1 NCelE2=     1 NClLst=     1 CellRange=     0.0.
 One-electron integrals computed using PRISM.
 One-electron integral symmetry used in STVInt
 NBasis=    38 RedAO= T EigKep=  1.64D-03  NBF=    17     4     7    10
 NBsUse=    38 1.00D-06 EigRej= -1.00D+00 NBFU=    17     4     7    10
 Precomputing XC quadrature grid using
 IXCGrd= 4 IRadAn=           5 IRanWt=          -1 IRanGd=           0 AccXCQ= 0.00D+00.
 Generated NRdTot=       0 NPtTot=           0 NUsed=           0 NTot=          32
 NSgBfM=    41    41    41    41    41 MxSgAt=     3 MxSgA2=     3.
 Leave Link  302 at Tue Jun 20 07:49:14 2023, MaxMem=   104857600 cpu:               0.1 elap:               0.1
 (Enter /soft/gaussian/16-c.02/g16/l303.exe)
 DipDrv:  MaxL=1.
 Leave Link  303 at Tue Jun 20 07:49:14 2023, MaxMem=   104857600 cpu:               0.1 elap:               0.0
 (Enter /soft/gaussian/16-c.02/g16/l401.exe)
 Initial guess from the checkpoint file:  "gauss.chk"
 B after Tr=     0.000000    0.000000   -0.000000
         Rot=    1.000000   -0.000000    0.000000    0.000000 Ang=   0.00 deg.
 Guess basis will be translated and rotated to current coordinates.
 JPrj=2 DoOrth=T DoCkMO=T.
 Initial guess orbital symmetries:
       Occupied  (A1) (A1) (B2) (A1) (B1)
       Virtual   (A1) (B2) (B2) (A1) (A1) (B1) (A2) (A1) (B1) (A1)
                 (B2) (A1) (B2) (B2) (A2) (B1) (B2) (A1) (A1) (A1)
                 (A2) (B1) (A1) (B2) (B1) (A1) (B1) (B2) (A2) (A1)
                 (B2) (A1) (A1)
 The electronic state of the initial guess is 1-A1.
 Leave Link  401 at Tue Jun 20 07:49:14 2023, MaxMem=   104857600 cpu:               0.1 elap:               0.2
 (Enter /soft/gaussian/16-c.02/g16/l502.exe)
 Keep R1 ints in memory in symmetry-blocked form, NReq=2229636.
 FoFCou: FMM=F IPFlag=           0 FMFlag=           0 FMFlg1=           0
         NFxFlg=           0 DoJE=F BraDBF=F KetDBF=F FulRan=T
         wScrn=  0.000000 ICntrl=       600 IOpCl=  0 I1Cent=           0 NGrid=           0
         NMat0=    1 NMatS0=    741 NMatT0=    0 NMatD0=    1 NMtDS0=    0 NMtDT0=    0
 Petite list used in FoFCou.
 Closed shell SCF:
 Using DIIS extrapolation, IDIIS=  1040.
 NGot=   104857600 LenX=   104778050 LenY=   104775928
 Requested convergence on RMS density matrix=1.00D-08 within 200 cycles.
 Requested convergence on MAX density matrix=1.00D-06.
 Requested convergence on             energy=1.00D-06.
 No special actions if energy rises.

 Cycle   1  Pass 1  IDiag  1:
 E= -76.4260533053107    
 DIIS: error= 9.92D-04 at cycle   1 NSaved=   1.
 NSaved= 1 IEnMin= 1 EnMin= -76.4260533053107     IErMin= 1 ErrMin= 9.92D-04
 ErrMax= 9.92D-04  0.00D+00 EMaxC= 1.00D-01 BMatC= 2.73D-05 BMatP= 2.73D-05
 IDIUse=3 WtCom= 9.90D-01 WtEn= 9.92D-03
 Coeff-Com:  0.100D+01
 Coeff-En:   0.100D+01
 Coeff:      0.100D+01
 Gap=     0.363 Goal=   None    Shift=    0.000
 RMSDP=1.77D-04 MaxDP=2.84D-03              OVMax= 2.75D-03

 Cycle   2  Pass 1  IDiag  1:
 E= -76.4260715013743     Delta-E=       -0.000018196064 Rises=F Damp=F
 DIIS: error= 5.40D-04 at cycle   2 NSaved=   2.
 NSaved= 2 IEnMin= 2 EnMin= -76.4260715013743     IErMin= 2 ErrMin= 5.40D-04
 ErrMax= 5.40D-04  0.00D+00 EMaxC= 1.00D-01 BMatC= 9.67D-06 BMatP= 2.73D-05
 IDIUse=3 WtCom= 9.95D-01 WtEn= 5.40D-03
 Coeff-Com:  0.324D+00 0.676D+00
 Coeff-En:   0.000D+00 0.100D+01
 Coeff:      0.323D+00 0.677D+00
 Gap=     0.361 Goal=   None    Shift=    0.000
 RMSDP=7.12D-05 MaxDP=1.10D-03 DE=-1.82D-05 OVMax= 1.11D-03

 Cycle   3  Pass 1  IDiag  1:
 E= -76.4260754711368     Delta-E=       -0.000003969763 Rises=F Damp=F
 DIIS: error= 2.83D-04 at cycle   3 NSaved=   3.
 NSaved= 3 IEnMin= 3 EnMin= -76.4260754711368     IErMin= 3 ErrMin= 2.83D-04
 ErrMax= 2.83D-04  0.00D+00 EMaxC= 1.00D-01 BMatC= 3.66D-06 BMatP= 9.67D-06
 IDIUse=3 WtCom= 9.97D-01 WtEn= 2.83D-03
 Coeff-Com:  0.238D-01 0.378D+00 0.598D+00
 Coeff-En:   0.000D+00 0.292D+00 0.708D+00
 Coeff:      0.237D-01 0.378D+00 0.598D+00
 Gap=     0.362 Goal=   None    Shift=    0.000
 RMSDP=2.98D-05 MaxDP=4.58D-04 DE=-3.97D-06 OVMax= 5.10D-04

 Cycle   4  Pass 1  IDiag  1:
 E= -76.4260779494305     Delta-E=       -0.000002478294 Rises=F Damp=F
 DIIS: error= 3.32D-05 at cycle   4 NSaved=   4.
 NSaved= 4 IEnMin= 4 EnMin= -76.4260779494305     IErMin= 4 ErrMin= 3.32D-05
 ErrMax= 3.32D-05  0.00D+00 EMaxC= 1.00D-01 BMatC= 2.60D-08 BMatP= 3.66D-06
 IDIUse=1 WtCom= 1.00D+00 WtEn= 0.00D+00
 Coeff-Com: -0.540D-02 0.674D-01 0.155D+00 0.783D+00
 Coeff:     -0.540D-02 0.674D-01 0.155D+00 0.783D+00
 Gap=     0.362 Goal=   None    Shift=    0.000
 RMSDP=2.38D-06 MaxDP=2.40D-05 DE=-2.48D-06 OVMax= 4.63D-05

 Cycle   5  Pass 1  IDiag  1:
 E= -76.4260779685665     Delta-E=       -0.000000019136 Rises=F Damp=F
 DIIS: error= 2.44D-06 at cycle   5 NSaved=   5.
 NSaved= 5 IEnMin= 5 EnMin= -76.4260779685665     IErMin= 5 ErrMin= 2.44D-06
 ErrMax= 2.44D-06  0.00D+00 EMaxC= 1.00D-01 BMatC= 1.38D-10 BMatP= 2.60D-08
 IDIUse=1 WtCom= 1.00D+00 WtEn= 0.00D+00
 Coeff-Com: -0.485D-03-0.383D-02-0.308D-02 0.631D-01 0.944D+00
 Coeff:     -0.485D-03-0.383D-02-0.308D-02 0.631D-01 0.944D+00
 Gap=     0.362 Goal=   None    Shift=    0.000
 RMSDP=3.13D-07 MaxDP=3.84D-06 DE=-1.91D-08 OVMax= 6.39D-06

 Cycle   6  Pass 1  IDiag  1:
 E= -76.4260779686864     Delta-E=       -0.000000000120 Rises=F Damp=F
 DIIS: error= 1.96D-07 at cycle   6 NSaved=   6.
 NSaved= 6 IEnMin= 6 EnMin= -76.4260779686864     IErMin= 6 ErrMin= 1.96D-07
 ErrMax= 1.96D-07  0.00D+00 EMaxC= 1.00D-01 BMatC= 8.76D-13 BMatP= 1.38D-10
 IDIUse=1 WtCom= 1.00D+00 WtEn= 0.00D+00
 Coeff-Com:  0.531D-04-0.496D-03-0.753D-03-0.733D-02-0.439D-01 0.105D+01
 Coeff:      0.531D-04-0.496D-03-0.753D-03-0.733D-02-0.439D-01 0.105D+01
 Gap=     0.362 Goal=   None    Shift=    0.000
 RMSDP=3.71D-08 MaxDP=4.94D-07 DE=-1.20D-10 OVMax= 5.82D-07

 Cycle   7  Pass 1  IDiag  1:
 E= -76.4260779686875     Delta-E=       -0.000000000001 Rises=F Damp=F
 DIIS: error= 7.27D-09 at cycle   7 NSaved=   7.
 NSaved= 7 IEnMin= 7 EnMin= -76.4260779686875     IErMin= 7 ErrMin= 7.27D-09
 ErrMax= 7.27D-09  0.00D+00 EMaxC= 1.00D-01 BMatC= 1.45D-15 BMatP= 8.76D-13
 IDIUse=1 WtCom= 1.00D+00 WtEn= 0.00D+00
 Coeff-Com: -0.349D-06 0.409D-04 0.505D-04-0.463D-04-0.174D-02-0.562D-01
 Coeff-Com:  0.106D+01
 Coeff:     -0.349D-06 0.409D-04 0.505D-04-0.463D-04-0.174D-02-0.562D-01
 Coeff:      0.106D+01
 Gap=     0.362 Goal=   None    Shift=    0.000
 RMSDP=1.63D-09 MaxDP=2.06D-08 DE=-1.11D-12 OVMax= 2.80D-08

 SCF Done:  E(RB3LYP) =  -76.4260779687     A.U. after    7 cycles
            NFock=  7  Conv=0.16D-08     -V/T= 2.0051
 KE= 7.603782104113D+01 PE=-1.991509520871D+02 EE= 3.753561103937D+01
 Leave Link  502 at Tue Jun 20 07:49:15 2023, MaxMem=   104857600 cpu:               0.6 elap:               0.7
 (Enter /soft/gaussian/16-c.02/g16/l508.exe)
 QCSCF skips out because SCF is already converged.
 Leave Link  508 at Tue Jun 20 07:49:15 2023, MaxMem=   104857600 cpu:               0.0 elap:               0.0
 (Enter /soft/gaussian/16-c.02/g16/l701.exe)
 ... and contract with generalized density number  0.
 Compute integral first derivatives.
 Leave Link  701 at Tue Jun 20 07:49:15 2023, MaxMem=   104857600 cpu:               0.1 elap:               0.1
 (Enter /soft/gaussian/16-c.02/g16/l702.exe)
 L702 exits ... SP integral derivatives will be done elsewhere.
 Leave Link  702 at Tue Jun 20 07:49:15 2023, MaxMem=   104857600 cpu:               0.0 elap:               0.0
 (Enter /soft/gaussian/16-c.02/g16/l703.exe)
 Integral derivatives from FoFJK, PRISM(SPDF).
 Compute integral first derivatives, UseDBF=F ICtDFT=           0.
 Calling FoFJK, ICntrl=      2127 FMM=F ISym2X=1 I1Cent= 0 IOpClX= 0 NMat=1 NMatS=1 NMatT=0.
 FoFJK:  IHMeth= 1 ICntrl=    2127 DoSepK=F KAlg= 0 I1Cent=           0 FoldK=F
 IRaf=         0 NMat=       1 IRICut=       1 DoRegI=T DoRafI=F ISym2E= 1 IDoP0=0 IntGTp=1.
 FoFCou: FMM=F IPFlag=           0 FMFlag=      100000 FMFlg1=         800
         NFxFlg=           0 DoJE=F BraDBF=F KetDBF=F FulRan=T
         wScrn=  0.000000 ICntrl=      2127 IOpCl=  0 I1Cent=           0 NGrid=           0
         NMat0=    1 NMatS0=      1 NMatT0=    0 NMatD0=    1 NMtDS0=    0 NMtDT0=    0
 Petite list used in FoFCou.
 Leave Link  703 at Tue Jun 20 07:49:16 2023, MaxMem=   104857600 cpu:               0.5 elap:               0.6
 (Enter /soft/gaussian/16-c.02/g16/l716.exe)
 Dipole        =-4.88013351D-17 0.00000000D+00-7.28241966D-01
 ***** Axes restored to original set *****
 -------------------------------------------------------------------
 Center     Atomic                   Forces (Hartrees/Bohr)
 Number     Number              X              Y              Z
 -------------------------------------------------------------------
      1        8          -0.000000000   -0.000000000    0.000176354
      2        1           0.000000000    0.000122881   -0.000088177
      3        1           0.000000000   -0.000122881   -0.000088177
 -------------------------------------------------------------------
 Cartesian Forces:  Max     0.000176354 RMS     0.000092406
 Leave Link  716 at Tue Jun 20 07:49:16 2023, MaxMem=   104857600 cpu:               0.0 elap:               0.1
 (Enter /soft/gaussian/16-c.02/g16/l103.exe)

 GradGradGradGradGradGradGradGradGradGradGradGradGradGradGradGradGradGrad
 Berny optimization.
 Using GEDIIS/GDIIS optimizer.
 FormGI is forming the generalized inverse of G from B-inverse, IUseBI=4.
 Internal  Forces:  Max     0.000151103 RMS     0.000123566
 Search for a local minimum.
 Step number   2 out of a maximum of  100
 All quantities printed in internal units (Hartrees-Bohrs-Radians)
 RMS Force = .12357D-03 SwitMx=.10000D-02 MixMth= 2
 Mixed Optimization -- En-DIIS/RFO-DIIS
 Update second derivatives using D2CorX and points    1    2
 DE= -8.34D-05 DEPred=-8.47D-05 R= 9.85D-01
 TightC=F SS=  1.41D+00  RLast= 1.83D-02 DXNew= 5.0454D-01 5.5013D-02
 Trust test= 9.85D-01 RLast= 1.83D-02 DXMaxT set to 3.00D-01
 The second derivative matrix:
                          R1        R2        A1
           R1           0.51675
           R2          -0.00032   0.51675
           A1           0.03242   0.03242   0.16587
 ITU=  1  0
 Use linear search instead of GDIIS.
     Eigenvalues ---    0.15998   0.51707   0.52232
 RFO step:  Lambda= 0.00000000D+00 EMin= 1.59977294D-01
 Quartic linear search produced a step of -0.02166.
 Iteration  1 RMS(Cart)=  0.00019217 RMS(Int)=  0.00000000
 Iteration  2 RMS(Cart)=  0.00000000 RMS(Int)=  0.00000000
 ITry= 1 IFail=0 DXMaxC= 2.00D-04 DCOld= 1.00D+10 DXMaxT= 3.00D-01 DXLimC= 3.00D+00 Rises=F
 ClnCor:  largest displacement from symmetrization is 2.22D-16 for atom     3.
 Variable       Old X    -DE/DX   Delta X   Delta X   Delta X     New X
                                 (Linear)    (Quad)   (Total)
    R1        1.81783   0.00015   0.00027   0.00002   0.00029   1.81812
    R2        1.81783   0.00015   0.00027   0.00002   0.00029   1.81812
    A1        1.81025   0.00001   0.00011  -0.00015  -0.00005   1.81020
         Item               Value     Threshold  Converged?
 Maximum Force            0.000151     0.000015     NO 
 RMS     Force            0.000124     0.000010     NO 
 Maximum Displacement     0.000200     0.000060     NO 
 RMS     Displacement     0.000192     0.000040     NO 
 Predicted change in Energy=-4.434604D-08
 Lowest energy point so far.  Saving SCF results.
 GradGradGradGradGradGradGradGradGradGradGradGradGradGradGradGradGradGrad

 Leave Link  103 at Tue Jun 20 07:49:16 2023, MaxMem=   104857600 cpu:               0.0 elap:               0.1
 (Enter /soft/gaussian/16-c.02/g16/l202.exe)
                          Input orientation:                          
 ---------------------------------------------------------------------
 Center     Atomic      Atomic             Coordinates (Angstroms)
 Number     Number       Type             X           Y           Z
 ---------------------------------------------------------------------
      1          8           0       -0.000000   -0.000000    0.117858
      2          1           0        0.000000    0.756683   -0.476345
      3          1           0       -0.000000   -0.756683   -0.476345
 ---------------------------------------------------------------------
                    Distance matrix (angstroms):
                    1          2          3
     1  O    0.000000
     2  H    0.962105   0.000000
     3  H    0.962105   1.513366   0.000000
 Stoichiometry    H2O
 Framework group  C2V[C2(O),SGV(H2)]
 Deg. of freedom     2
 Full point group                 C2V     NOp   4
 RotChk:  IX=0 Diff= 4.65D-16
 Largest Abelian subgroup         C2V     NOp   4
 Largest concise Abelian subgroup C2      NOp   2
                         Standard orientation:                         
 ---------------------------------------------------------------------
 Center     Atomic      Atomic             Coordinates (Angstroms)
 Number     Number       Type             X           Y           Z
 ---------------------------------------------------------------------
      1          8           0       -0.000000    0.000000    0.118841
      2          1           0        0.000000    0.756683   -0.475362
      3          1           0       -0.000000   -0.756683   -0.475362
 ---------------------------------------------------------------------
 Rotational constants (GHZ):         799.6098388         437.8989025         282.9460990
 Leave Link  202 at Tue Jun 20 07:49:16 2023, MaxMem=   104857600 cpu:               0.0 elap:               0.0
 (Enter /soft/gaussian/16-c.02/g16/l301.exe)
 Standard basis: 6-31G(2df,p) (6D, 7F)
 Ernie: Thresh=  0.10000D-02 Tol=  0.10000D-05 Strict=F.
 There are    18 symmetry adapted cartesian basis functions of A1  symmetry.
 There are     4 symmetry adapted cartesian basis functions of A2  symmetry.
 There are     8 symmetry adapted cartesian basis functions of B1  symmetry.
 There are    11 symmetry adapted cartesian basis functions of B2  symmetry.
 There are    17 symmetry adapted basis functions of A1  symmetry.
 There are     4 symmetry adapted basis functions of A2  symmetry.
 There are     7 symmetry adapted basis functions of B1  symmetry.
 There are    10 symmetry adapted basis functions of B2  symmetry.
    38 basis functions,    58 primitive gaussians,    41 cartesian basis functions
     5 alpha electrons        5 beta electrons
       nuclear repulsion energy         9.1499907284 Hartrees.
 IExCor=  402 DFT=T Ex+Corr=B3LYP ExCW=0 ScaHFX=  0.200000
 ScaDFX=  0.800000  0.720000  1.000000  0.810000 ScalE2=  1.000000  1.000000
 IRadAn=      5 IRanWt=     -1 IRanGd=            0 ICorTp=0 IEmpDi=  4
 NAtoms=    3 NActive=    3 NUniq=    2 SFac= 2.25D+00 NAtFMM=   60 NAOKFM=F Big=F
 Integral buffers will be    131072 words long.
 Raffenetti 2 integral format.
 Two-electron integral symmetry is turned on.
 Leave Link  301 at Tue Jun 20 07:49:16 2023, MaxMem=   104857600 cpu:               0.1 elap:               0.1
 (Enter /soft/gaussian/16-c.02/g16/l302.exe)
 NPDir=0 NMtPBC=     1 NCelOv=     1 NCel=       1 NClECP=     1 NCelD=      1
         NCelK=      1 NCelE2=     1 NClLst=     1 CellRange=     0.0.
 One-electron integrals computed using PRISM.
 One-electron integral symmetry used in STVInt
 NBasis=    38 RedAO= T EigKep=  1.64D-03  NBF=    17     4     7    10
 NBsUse=    38 1.00D-06 EigRej= -1.00D+00 NBFU=    17     4     7    10
 Precomputing XC quadrature grid using
 IXCGrd= 4 IRadAn=           5 IRanWt=          -1 IRanGd=           0 AccXCQ= 0.00D+00.
 Generated NRdTot=       0 NPtTot=           0 NUsed=           0 NTot=          32
 NSgBfM=    41    41    41    41    41 MxSgAt=     3 MxSgA2=     3.
 Leave Link  302 at Tue Jun 20 07:49:16 2023, MaxMem=   104857600 cpu:               0.1 elap:               0.1
 (Enter /soft/gaussian/16-c.02/g16/l303.exe)
 DipDrv:  MaxL=1.
 Leave Link  303 at Tue Jun 20 07:49:16 2023, MaxMem=   104857600 cpu:               0.1 elap:               0.1
 (Enter /soft/gaussian/16-c.02/g16/l401.exe)
 Initial guess from the checkpoint file:  "gauss.chk"
 B after Tr=    -0.000000   -0.000000   -0.000000
         Rot=    1.000000   -0.000000   -0.000000    0.000000 Ang=   0.00 deg.
 Guess basis will be translated and rotated to current coordinates.
 JPrj=2 DoOrth=T DoCkMO=T.
 Initial guess orbital symmetries:
       Occupied  (A1) (A1) (B2) (A1) (B1)
       Virtual   (A1) (B2) (B2) (A1) (A1) (B1) (A2) (A1) (B1) (A1)
                 (B2) (A1) (B2) (B2) (A2) (B1) (B2) (A1) (A1) (A1)
                 (A2) (B1) (A1) (B2) (B1) (A1) (B1) (B2) (A2) (A1)
                 (B2) (A1) (A1)
 The electronic state of the initial guess is 1-A1.
 Leave Link  401 at Tue Jun 20 07:49:17 2023, MaxMem=   104857600 cpu:               0.1 elap:               0.1
 (Enter /soft/gaussian/16-c.02/g16/l502.exe)
 Keep R1 ints in memory in symmetry-blocked form, NReq=2229636.
 FoFCou: FMM=F IPFlag=           0 FMFlag=           0 FMFlg1=           0
         NFxFlg=           0 DoJE=F BraDBF=F KetDBF=F FulRan=T
         wScrn=  0.000000 ICntrl=       600 IOpCl=  0 I1Cent=           0 NGrid=           0
         NMat0=    1 NMatS0=    741 NMatT0=    0 NMatD0=    1 NMtDS0=    0 NMtDT0=    0
 Petite list used in FoFCou.
 Closed shell SCF:
 Using DIIS extrapolation, IDIIS=  1040.
 NGot=   104857600 LenX=   104778050 LenY=   104775928
 Requested convergence on RMS density matrix=1.00D-08 within 200 cycles.
 Requested convergence on MAX density matrix=1.00D-06.
 Requested convergence on             energy=1.00D-06.
 No special actions if energy rises.

 Cycle   1  Pass 1  IDiag  1:
 E= -76.4260779974644    
 DIIS: error= 2.21D-05 at cycle   1 NSaved=   1.
 NSaved= 1 IEnMin= 1 EnMin= -76.4260779974644     IErMin= 1 ErrMin= 2.21D-05
 ErrMax= 2.21D-05  0.00D+00 EMaxC= 1.00D-01 BMatC= 1.47D-08 BMatP= 1.47D-08
 IDIUse=1 WtCom= 1.00D+00 WtEn= 0.00D+00
 Coeff-Com:  0.100D+01
 Coeff:      0.100D+01
 Gap=     0.361 Goal=   None    Shift=    0.000
 RMSDP=4.57D-06 MaxDP=7.36D-05              OVMax= 6.99D-05

 Cycle   2  Pass 1  IDiag  1:
 E= -76.4260780081282     Delta-E=       -0.000000010664 Rises=F Damp=F
 DIIS: error= 1.31D-05 at cycle   2 NSaved=   2.
 NSaved= 2 IEnMin= 2 EnMin= -76.4260780081282     IErMin= 2 ErrMin= 1.31D-05
 ErrMax= 1.31D-05  0.00D+00 EMaxC= 1.00D-01 BMatC= 5.80D-09 BMatP= 1.47D-08
 IDIUse=1 WtCom= 1.00D+00 WtEn= 0.00D+00
 Coeff-Com:  0.339D+00 0.661D+00
 Coeff:      0.339D+00 0.661D+00
 Gap=     0.361 Goal=   None    Shift=    0.000
 RMSDP=1.71D-06 MaxDP=2.64D-05 DE=-1.07D-08 OVMax= 2.67D-05

 Cycle   3  Pass 1  IDiag  1:
 E= -76.4260780106599     Delta-E=       -0.000000002532 Rises=F Damp=F
 DIIS: error= 6.55D-06 at cycle   3 NSaved=   3.
 NSaved= 3 IEnMin= 3 EnMin= -76.4260780106599     IErMin= 3 ErrMin= 6.55D-06
 ErrMax= 6.55D-06  0.00D+00 EMaxC= 1.00D-01 BMatC= 1.99D-09 BMatP= 5.80D-09
 IDIUse=1 WtCom= 1.00D+00 WtEn= 0.00D+00
 Coeff-Com:  0.138D-01 0.366D+00 0.620D+00
 Coeff:      0.138D-01 0.366D+00 0.620D+00
 Gap=     0.361 Goal=   None    Shift=    0.000
 RMSDP=6.95D-07 MaxDP=1.07D-05 DE=-2.53D-09 OVMax= 1.21D-05

 Cycle   4  Pass 1  IDiag  1:
 E= -76.4260780120080     Delta-E=       -0.000000001348 Rises=F Damp=F
 DIIS: error= 7.39D-07 at cycle   4 NSaved=   4.
 NSaved= 4 IEnMin= 4 EnMin= -76.4260780120080     IErMin= 4 ErrMin= 7.39D-07
 ErrMax= 7.39D-07  0.00D+00 EMaxC= 1.00D-01 BMatC= 1.19D-11 BMatP= 1.99D-09
 IDIUse=1 WtCom= 1.00D+00 WtEn= 0.00D+00
 Coeff-Com: -0.638D-02 0.639D-01 0.151D+00 0.792D+00
 Coeff:     -0.638D-02 0.639D-01 0.151D+00 0.792D+00
 Gap=     0.361 Goal=   None    Shift=    0.000
 RMSDP=5.23D-08 MaxDP=4.85D-07 DE=-1.35D-09 OVMax= 1.03D-06

 Cycle   5  Pass 1  IDiag  1:
 E= -76.4260780120170     Delta-E=       -0.000000000009 Rises=F Damp=F
 DIIS: error= 6.33D-08 at cycle   5 NSaved=   5.
 NSaved= 5 IEnMin= 5 EnMin= -76.4260780120170     IErMin= 5 ErrMin= 6.33D-08
 ErrMax= 6.33D-08  0.00D+00 EMaxC= 1.00D-01 BMatC= 9.41D-14 BMatP= 1.19D-11
 IDIUse=1 WtCom= 1.00D+00 WtEn= 0.00D+00
 Coeff-Com: -0.499D-03-0.401D-02-0.380D-02 0.760D-01 0.932D+00
 Coeff:     -0.499D-03-0.401D-02-0.380D-02 0.760D-01 0.932D+00
 Gap=     0.361 Goal=   None    Shift=    0.000
 RMSDP=7.74D-09 MaxDP=9.26D-08 DE=-8.97D-12 OVMax= 1.61D-07

 SCF Done:  E(RB3LYP) =  -76.4260780120     A.U. after    5 cycles
            NFock=  5  Conv=0.77D-08     -V/T= 2.0051
 KE= 7.603730439259D+01 PE=-1.991478519720D+02 EE= 3.753447883906D+01
 Leave Link  502 at Tue Jun 20 07:49:17 2023, MaxMem=   104857600 cpu:               0.5 elap:               0.5
 (Enter /soft/gaussian/16-c.02/g16/l508.exe)
 QCSCF skips out because SCF is already converged.
 Leave Link  508 at Tue Jun 20 07:49:17 2023, MaxMem=   104857600 cpu:               0.0 elap:               0.0
 (Enter /soft/gaussian/16-c.02/g16/l701.exe)
 ... and contract with generalized density number  0.
 Compute integral first derivatives.
 Leave Link  701 at Tue Jun 20 07:49:17 2023, MaxMem=   104857600 cpu:               0.1 elap:               0.1
 (Enter /soft/gaussian/16-c.02/g16/l702.exe)
 L702 exits ... SP integral derivatives will be done elsewhere.
 Leave Link  702 at Tue Jun 20 07:49:17 2023, MaxMem=   104857600 cpu:               0.1 elap:               0.0
 (Enter /soft/gaussian/16-c.02/g16/l703.exe)
 Integral derivatives from FoFJK, PRISM(SPDF).
 Compute integral first derivatives, UseDBF=F ICtDFT=           0.
 Calling FoFJK, ICntrl=      2127 FMM=F ISym2X=1 I1Cent= 0 IOpClX= 0 NMat=1 NMatS=1 NMatT=0.
 FoFJK:  IHMeth= 1 ICntrl=    2127 DoSepK=F KAlg= 0 I1Cent=           0 FoldK=F
 IRaf=         0 NMat=       1 IRICut=       1 DoRegI=T DoRafI=F ISym2E= 1 IDoP0=0 IntGTp=1.
 FoFCou: FMM=F IPFlag=           0 FMFlag=      100000 FMFlg1=         800
         NFxFlg=           0 DoJE=F BraDBF=F KetDBF=F FulRan=T
         wScrn=  0.000000 ICntrl=      2127 IOpCl=  0 I1Cent=           0 NGrid=           0
         NMat0=    1 NMatS0=      1 NMatT0=    0 NMatD0=    1 NMtDS0=    0 NMtDT0=    0
 Petite list used in FoFCou.
 Leave Link  703 at Tue Jun 20 07:49:18 2023, MaxMem=   104857600 cpu:               0.6 elap:               0.5
 (Enter /soft/gaussian/16-c.02/g16/l716.exe)
 Dipole        =-4.88127645D-17 0.00000000D+00-7.28280887D-01
 ***** Axes restored to original set *****
 -------------------------------------------------------------------
 Center     Atomic                   Forces (Hartrees/Bohr)
 Number     Number              X              Y              Z
 -------------------------------------------------------------------
      1        8          -0.000000000    0.000000000   -0.000001505
      2        1           0.000000000    0.000000090    0.000000753
      3        1           0.000000000   -0.000000090    0.000000753
 -------------------------------------------------------------------
 Cartesian Forces:  Max     0.000001505 RMS     0.000000616
 Leave Link  716 at Tue Jun 20 07:49:18 2023, MaxMem=   104857600 cpu:               0.1 elap:               0.1
 (Enter /soft/gaussian/16-c.02/g16/l103.exe)

 GradGradGradGradGradGradGradGradGradGradGradGradGradGradGradGradGradGrad
 Berny optimization.
 Using GEDIIS/GDIIS optimizer.
 FormGI is forming the generalized inverse of G from B-inverse, IUseBI=4.
 Internal  Forces:  Max     0.000001177 RMS     0.000000752
 Search for a local minimum.
 Step number   3 out of a maximum of  100
 All quantities printed in internal units (Hartrees-Bohrs-Radians)
 RMS Force = .75190D-06 SwitMx=.10000D-02 MixMth= 2
 Mixed Optimization -- En-DIIS/RFO-DIIS
 Swapping is turned off.
 Update second derivatives using D2CorX and points    1    2    3
 DE= -4.33D-08 DEPred=-4.43D-08 R= 9.77D-01
 Trust test= 9.77D-01 RLast= 4.13D-04 DXMaxT set to 3.00D-01
 The second derivative matrix:
                          R1        R2        A1
           R1           0.52278
           R2           0.00571   0.52278
           A1           0.03248   0.03248   0.16586
 ITU=  0  1  0
     Eigenvalues ---    0.16013   0.51707   0.53421
 En-DIIS/RFO-DIIS/Sim-DIIS IScMMF=       -3 using points:     3    2
 RFO step:  Lambda= 0.00000000D+00.
 NNeg= 0 NGDIIS= 2 SimSw=  2.50D-03 Rises=F DC= -4.33D-08 SmlDif=  1.00D-05
 NRisDI= 0 DoIntr=F SqrtH=F CThrHd= 10.0 CDAdj=  3.0
 RMS Error=  0.4481618332D-05 NUsed= 2 OKEnD=F EnDIS=F
 InvSVX:  RCond= 1.91D-07 Info=           0 Equed=N FErr=  8.95D-16 BErr=  5.96D-17
 DidBck=F Rises=F RFO-DIIS coefs:    0.99370    0.00630
 Iteration  1 RMS(Cart)=  0.00000396 RMS(Int)=  0.00000000
 Iteration  2 RMS(Cart)=  0.00000000 RMS(Int)=  0.00000000
 ITry= 1 IFail=0 DXMaxC= 4.11D-06 DCOld= 1.00D+10 DXMaxT= 3.00D-01 DXLimC= 3.00D+00 Rises=F
 ClnCor:  largest displacement from symmetrization is 3.14D-16 for atom     3.
 Variable       Old X    -DE/DX   Delta X   Delta X   Delta X     New X
                                 (Linear)    (Quad)   (Total)
    R1        1.81812  -0.00000  -0.00000   0.00000  -0.00000   1.81811
    R2        1.81812  -0.00000  -0.00000   0.00000  -0.00000   1.81811
    A1        1.81020   0.00000   0.00000   0.00001   0.00001   1.81021
         Item               Value     Threshold  Converged?
 Maximum Force            0.000001     0.000015     YES
 RMS     Force            0.000001     0.000010     YES
 Maximum Displacement     0.000004     0.000060     YES
 RMS     Displacement     0.000004     0.000040     YES
 Predicted change in Energy=-4.933077D-12
 Optimization completed.
    -- Stationary point found.
                           ----------------------------
                           !   Optimized Parameters   !
                           ! (Angstroms and Degrees)  !
 --------------------------                            --------------------------
 ! Name  Definition              Value          Derivative Info.                !
 --------------------------------------------------------------------------------
 ! R1    R(1,2)                  0.9621         -DE/DX =    0.0                 !
 ! R2    R(1,3)                  0.9621         -DE/DX =    0.0                 !
 ! A1    A(2,1,3)              103.7168         -DE/DX =    0.0                 !
 --------------------------------------------------------------------------------
 Lowest energy point so far.  Saving SCF results.
 Largest change from initial coordinates is atom    2       0.007 Angstoms.
 GradGradGradGradGradGradGradGradGradGradGradGradGradGradGradGradGradGrad

 Leave Link  103 at Tue Jun 20 07:49:18 2023, MaxMem=   104857600 cpu:               0.0 elap:               0.0
 (Enter /soft/gaussian/16-c.02/g16/l202.exe)
                          Input orientation:                          
 ---------------------------------------------------------------------
 Center     Atomic      Atomic             Coordinates (Angstroms)
 Number     Number       Type             X           Y           Z
 ---------------------------------------------------------------------
      1          8           0        0.000000   -0.000000    0.117858
      2          1           0        0.000000    0.756683   -0.476345
      3          1           0       -0.000000   -0.756683   -0.476345
 ---------------------------------------------------------------------
                    Distance matrix (angstroms):
                    1          2          3
     1  O    0.000000
     2  H    0.962105   0.000000
     3  H    0.962105   1.513366   0.000000
 Stoichiometry    H2O
 Framework group  C2V[C2(O),SGV(H2)]
 Deg. of freedom     2
 Full point group                 C2V     NOp   4
 RotChk:  IX=0 Diff= 8.48D-16
 Largest Abelian subgroup         C2V     NOp   4
 Largest concise Abelian subgroup C2      NOp   2
                         Standard orientation:                         
 ---------------------------------------------------------------------
 Center     Atomic      Atomic             Coordinates (Angstroms)
 Number     Number       Type             X           Y           Z
 ---------------------------------------------------------------------
      1          8           0        0.000000    0.000000    0.118841
      2          1           0       -0.000000    0.756683   -0.475362
      3          1           0       -0.000000   -0.756683   -0.475362
 ---------------------------------------------------------------------
 Rotational constants (GHZ):         799.6098388         437.8989025         282.9460990
 Leave Link  202 at Tue Jun 20 07:49:18 2023, MaxMem=   104857600 cpu:               0.0 elap:               0.0
 (Enter /soft/gaussian/16-c.02/g16/l601.exe)
 Copying SCF densities to generalized density rwf, IOpCl= 0 IROHF=0.

 **********************************************************************

            Population analysis using the SCF Density.

 **********************************************************************

 Orbital symmetries:
       Occupied  (A1) (A1) (B2) (A1) (B1)
       Virtual   (A1) (B2) (B2) (A1) (A1) (B1) (A2) (A1) (B1) (A1)
                 (B2) (A1) (B2) (B2) (A2) (B1) (B2) (A1) (A1) (A1)
                 (A2) (B1) (A1) (B2) (B1) (A1) (B1) (B2) (A2) (A1)
                 (B2) (A1) (A1)
 The electronic state is 1-A1.
 Alpha  occ. eigenvalues --  -19.12883  -0.99627  -0.51362  -0.37241  -0.29281
 Alpha virt. eigenvalues --    0.06867   0.15321   0.62320   0.68191   0.82861
 Alpha virt. eigenvalues --    0.86434   0.88581   0.91798   0.94828   1.00304
 Alpha virt. eigenvalues --    1.02141   1.70751   2.10754   2.32081   2.46748
 Alpha virt. eigenvalues --    2.55695   2.86113   2.88008   3.05758   4.11497
 Alpha virt. eigenvalues --    4.12180   4.13911   4.44634   4.76889   5.01794
 Alpha virt. eigenvalues --    5.19706   5.40717   5.41068   5.53682   5.80742
 Alpha virt. eigenvalues --    5.86990   6.86660  12.78617
          Condensed to atoms (all electrons):
               1          2          3
     1  O    7.998682   0.295513   0.295513
     2  H    0.295513   0.444968  -0.035334
     3  H    0.295513  -0.035334   0.444968
 Mulliken charges:
               1
     1  O   -0.589707
     2  H    0.294853
     3  H    0.294853
 Sum of Mulliken charges =   0.00000
 Mulliken charges with hydrogens summed into heavy atoms:
               1
     1  O    0.000000
 Electronic spatial extent (au):  <R**2>=             19.0002
 Charge=              0.0000 electrons
 Dipole moment (field-independent basis, Debye):
    X=             -0.0000    Y=             -0.0000    Z=             -1.8511  Tot=              1.8511
 Quadrupole moment (field-independent basis, Debye-Ang):
   XX=             -7.1210   YY=             -4.2919   ZZ=             -5.9292
   XY=              0.0000   XZ=              0.0000   YZ=              0.0000
 Traceless Quadrupole moment (field-independent basis, Debye-Ang):
   XX=             -1.3402   YY=              1.4888   ZZ=             -0.1485
   XY=              0.0000   XZ=              0.0000   YZ=              0.0000
 Octapole moment (field-independent basis, Debye-Ang**2):
  XXX=              0.0000  YYY=             -0.0000  ZZZ=             -0.9207  XYY=             -0.0000
  XXY=             -0.0000  XXZ=             -0.2020  XZZ=              0.0000  YZZ=              0.0000
  YYZ=             -1.1599  XYZ=             -0.0000
 Hexadecapole moment (field-independent basis, Debye-Ang**3):
 XXXX=             -5.1294 YYYY=             -6.0398 ZZZZ=             -6.1400 XXXY=             -0.0000
 XXXZ=             -0.0000 YYYX=             -0.0000 YYYZ=             -0.0000 ZZZX=             -0.0000
 ZZZY=             -0.0000 XXYY=             -2.1095 XXZZ=             -1.9260 YYZZ=             -1.7165
 XXYZ=              0.0000 YYXZ=              0.0000 ZZXY=             -0.0000
 N-N= 9.149990728378D+00 E-N=-1.991478515309D+02  KE= 7.603730439259D+01
 Symmetry A1   KE= 6.789136423433D+01
 Symmetry A2   KE= 2.222865079694D-34
 Symmetry B1   KE= 4.578228987961D+00
 Symmetry B2   KE= 3.567711170301D+00
 No NMR shielding tensors so no spin-rotation constants.
 Leave Link  601 at Tue Jun 20 07:49:18 2023, MaxMem=   104857600 cpu:               0.1 elap:               0.1
 (Enter /soft/gaussian/16-c.02/g16/l9999.exe)
 Unable to Open any file for archive entry.
 1\1\GINC-BEBOPLOGIN4\FOpt\RB3LYP\6-31G(2df,p)\H2O1\LWARD\20-Jun-2023\0
 \\#P b3lyp/6-31g(2df,p) scf(xqc,MaxConventional=200) opt(calcfc,tight,
 maxcycle=100)\\Gaussian input prepared by ASE\\0,1\O,0.,0.,0.117857842
 5\H,0.,0.7566832178,-0.4763449213\H,0.,-0.7566832178,-0.4763449213\\Ve
 rsion=ES64L-G16RevC.02\State=1-A1\HF=-76.426078\RMSD=7.744e-09\RMSF=6.
 159e-07\Dipole=0.,0.,-0.7282809\Quadrupole=-0.9964405,1.1068625,-0.110
 422,0.,0.,0.\PG=C02V [C2(O1),SGV(H2)]\\@
 The archive entry for this job was punched.


 I LOVE THOSE WHO LONG FOR THE IMPOSSIBLE.

                                 -- GOETHE
 Job cpu time:       0 days  0 hours  0 minutes 10.1 seconds.
 Elapsed time:       0 days  0 hours  0 minutes 10.4 seconds.
 File lengths (MBytes):  RWF=    272 Int=      0 D2E=      0 Chk=     32 Scr=     32
 Normal termination of Gaussian 16 at Tue Jun 20 07:49:18 2023.
